block=matrix records=0
block=matrix_title records=1
h (hessian matrix)
block=dense_real_matrix records=81 dimensions=9 9 
1.26160928354922e+00
6.41580705535170e-02
-1.94374827058947e-03
-1.29262412673991e+00
8.28809297916495e-04
-1.50216628343342e-03
1.45666351870569e-02
-6.24714273318891e-02
-1.30285560929630e-03
6.41580705535171e-02
7.10301480694546e-01
7.17463715932171e-04
5.54279232783653e-02
6.58114241339711e-02
4.39901007920599e-04
-1.18702325121348e-01
-7.77145392891253e-01
2.54138954399900e-04
-1.94374827058946e-03
7.17463715932164e-04
2.47452456582521e-03
1.59968140022968e-03
-5.24731054329263e-05
1.82467660727538e-03
3.85595280869009e-04
-6.56543405511098e-04
-4.30431472670777e-03
-1.29262412673991e+00
5.54279232783654e-02
1.59968140022969e-03
1.25882738764767e+00
-7.49217293140472e-02
1.26684285663366e-03
4.83102749282912e-02
1.74220557656760e-02
1.09682497983898e-03
8.28809297916440e-04
6.58114241339711e-02
-5.24731054329313e-05
-7.49217293140472e-02
-6.80894103539664e-02
-4.13347334003242e-05
8.07591942918465e-02
2.37651138539887e-03
-3.03293679962422e-05
-1.50216628343339e-03
4.39901007920600e-04
1.82467660727538e-03
1.26684285663363e-03
-4.13347334003274e-05
-7.43349217988328e-03
3.12685112302124e-04
-4.28190294641882e-04
5.63869827956513e-03
1.45666351870569e-02
-1.18702325121348e-01
3.85595280869014e-04
4.83102749282911e-02
8.07591942918466e-02
3.12685112302120e-04
-5.91531722649248e-02
3.74135395715095e-02
2.46571535953350e-04
-6.24714273318892e-02
-7.77145392891253e-01
-6.56543405511100e-04
1.74220557656760e-02
2.37651138539890e-03
-4.28190294641885e-04
3.74135395715096e-02
7.75714076718455e-01
-2.22493272824073e-04
-1.30285560929628e-03
2.54138954399953e-04
-4.30431472670777e-03
1.09682497983897e-03
-3.03293679962340e-05
5.63869827956513e-03
2.46571535953339e-04
-2.22493272824134e-04
-1.32336166033671e-03
