block=matrix records=0
block=matrix_title records=1
h (hessian matrix)
block=dense_real_matrix records=9 dimensions=3 3 
9.84022996204172e-01
2.02169255025048e-01
-5.89722663025722e-02
2.02169255025048e-01
5.23432146620518e-01
-1.92881629289670e-01
-5.89722663025722e-02
-1.92881629289670e-01
-5.46783961553210e-01
